# vtk DataFile Version 3.0
Genereated by Matlab writeVTK()
ASCII
DATASET STRUCTURED_POINTS
DIMENSIONS 3 3 3
ORIGIN 0 0 0
SPACING 1 1 1
POINT_DATA 8000000
SCALARS value float 1
LOOKUP_TABLE default
1.0 0.0 0.0 0.0 1.0 0.0 0.0 0.0 1.0 
